21
Dihedral -180.0 Energy -573.8856619326
O      2.5404504491   1.3733962628   1.5767895356
C      3.1035238295   0.2705037175   1.6459198007
O      3.9532418432   -0.1654990561   2.4361204149
C      2.6808314815   -0.7461481764   0.4832635001
C      1.2194949679   -0.5877529267   0.2258539495
C      0.7443650643   0.1079209477   -0.8782901767
H      1.4545125927   0.5273449069   -1.5892430847
C      -0.6219823941   0.2814653310   -1.0956610953
H      -0.9610332103   0.8244682534   -1.9718663027
C      -1.5302350452   -0.2476428531   -0.1801962579
O      -2.8815266306   -0.1453131250   -0.2906169389
C      -3.3923903742   0.5409731376   -1.4122291050
H      -3.0950371429   0.0549752756   -2.3509523971
H      -4.4785733635   0.5092350567   -1.3164400985
H      -3.0587656492   1.5869855167   -1.4291934967
C      -1.0631676653   -0.9355075204   0.9460462876
H      -1.7935622242   -1.3309114501   1.6458765336
C      0.2966429234   -1.0928950338   1.1459645424
H      0.6563882351   -1.6188509581   2.0284310475
H      2.9481175691   -1.7584371225   0.7934565197
H      3.2766924174   -0.5003167010   -0.4070315441
21
Dihedral -165.0 Energy -573.8850948093
O      2.5926251572   1.3218902771   1.6260673256
C      3.1329342813   0.2058894508   1.6527263972
O      3.9809051394   -0.2744950249   2.4186503566
C      2.6757433896   -0.7622683668   0.4623682953
C      1.2158126268   -0.5630237100   0.2270140942
C      0.7455246404   0.1775199618   -0.8501998944
H      1.4578823212   0.5995125912   -1.5573193819
C      -0.6184638072   0.3866440072   -1.0469406379
H      -0.9563757926   0.9549770468   -1.9077494596
C      -1.5287086498   -0.1417222881   -0.1331297460
O      -2.8775066123   0.0160518635   -0.2173157949
C      -3.4049424336   0.4625496080   -1.4479203484
H      -3.0611599251   -0.1611774937   -2.2831921352
H      -4.4896800222   0.3864105048   -1.3583303469
H      -3.1321772712   1.5079542009   -1.6459482816
C      -1.0671022719   -0.8816326977   0.9610563419
H      -1.7979931929   -1.2787258223   1.6594170884
C      0.2910854349   -1.0780528243   1.1394383576
H      0.6474971913   -1.6422917740   1.9993793502
H      2.9235958233   -1.7898867504   0.7358761845
H      3.2674934666   -0.5001390167   -0.4259660395
21
Dihedral -150.0 Energy -573.883601251
O      2.6387211964   1.2667311279   1.6808478817
C      3.1575118719   0.1403262447   1.6634398344
O      4.0019121074   -0.3817831671   2.4056560202
C      2.6701306409   -0.7782109418   0.4461465287
C      1.2144476111   -0.5357273100   0.2245577431
C      0.7588311959   0.2518508732   -0.8265518489
H      1.4809232923   0.6754458308   -1.5224357879
C      -0.5994602703   0.4998639250   -1.0103626824
H      -0.9355156233   1.1004017635   -1.8506845147
C      -1.5190652211   -0.0312979180   -0.1075510205
O      -2.8634448391   0.1836356032   -0.1813493497
C      -3.4217070204   0.3731149750   -1.4655142661
H      -3.0657210589   -0.3843104386   -2.1754373185
H      -4.5024373076   0.2809506773   -1.3434847631
H      -3.1926106013   1.3712477310   -1.8630446511
C      -1.0739373622   -0.8211204357   0.9561603021
H      -1.8125359369   -1.2215143192   1.6444253081
C      0.2804726004   -1.0585738130   1.1220458560
H      0.6250493469   -1.6609602765   1.9605817328
H      2.8930836712   -1.8198752417   0.6860745942
H      3.2643836347   -0.5031196860   -0.4365440997
21
Dihedral -135.0 Energy -573.8819373948
O      2.6711789064   1.2083542322   1.7452235520
C      3.1677614004   0.0735730083   1.6833528525
O      4.0024325667   -0.4937598892   2.4029682070
C      2.6645242556   -0.7856320435   0.4296625643
C      1.2152709041   -0.5024820360   0.2145649358
C      0.7818866161   0.3385510240   -0.8058288731
H      1.5151214679   0.7764523771   -1.4805201741
C      -0.5695508774   0.6214721873   -0.9822284750
H      -0.8920802633   1.2762584134   -1.7872168074
C      -1.5037705548   0.0721429537   -0.1063354290
O      -2.8433022854   0.3399003076   -0.1817737449
C      -3.4397885066   0.2657233079   -1.4627834749
H      -3.1840523219   -0.6723484189   -1.9714428883
H      -4.5181820979   0.3073893363   -1.2970158416
H      -3.1495061662   1.1102951007   -2.1021076376
C      -1.0810959455   -0.7640744941   0.9285689671
H      -1.8319950680   -1.1744088999   1.5974637195
C      0.2682004146   -1.0392736004   1.0888742814
H      0.5961582776   -1.6813275829   1.9042417193
H      2.8637868810   -1.8405547767   0.6287225938
H      3.2670251789   -0.4892266638   -0.4403772653
21
Dihedral -120.0 Energy -573.8809780208
O      2.6852085598   1.1500774213   1.8150091482
C      3.1652023477   0.0117945669   1.7048717397
O      3.9855864277   -0.6003602310   2.4038929883
C      2.6579853113   -0.7823000491   0.4104592457
C      1.2152816372   -0.4651593981   0.1970529882
C      0.8074094341   0.4310228577   -0.7877492128
H      1.5541322356   0.8880905875   -1.4340187339
C      -0.5372941295   0.7425015580   -0.9623823649
H      -0.8521057618   1.4466813293   -1.7285442963
C      -1.4875019825   0.1659641723   -0.1228031244
O      -2.8199947099   0.4832300741   -0.2092792159
C      -3.4506008745   0.1538266718   -1.4330317096
H      -3.3849661899   -0.9231065849   -1.6381932937
H      -4.4991996814   0.4385135883   -1.3235688910
H      -3.0218355460   0.7049954616   -2.2808617304
C      -1.0912375786   -0.7177224568   0.8799146541
H      -1.8532415190   -1.1436460507   1.5259147866
C      0.2529415446   -1.0242436534   1.0394013016
H      0.5630549572   -1.7069326884   1.8281967160
H      2.8376799587   -1.8482900477   0.5637050616
H      3.2724995837   -0.4579038005   -0.4409855909
21
Dihedral -105.0 Energy -573.8806537864
O      2.6804301632   1.0943458692   1.8813256416
C      3.1516788323   -0.0429759133   1.7306633005
O      3.9592187412   -0.6897111314   2.4133094211
C      2.6517740851   -0.7801741473   0.4003204084
C      1.2176218078   -0.4322061217   0.1771366878
C      0.8412442127   0.5065181825   -0.7818065680
H      1.6064016495   0.9719276957   -1.3996557802
C      -0.4950307197   0.8464555740   -0.9629038842
H      -0.7999779654   1.5753992861   -1.7100734541
C      -1.4650013958   0.2564973059   -0.1572342404
O      -2.7864937159   0.6215648700   -0.2674531998
C      -3.4608841075   0.0617780896   -1.3785128995
H      -3.4949246693   -1.0343652696   -1.3131354170
H      -4.4796887023   0.4549525529   -1.3549835874
H      -2.9895532545   0.3480189310   -2.3290222006
C      -1.1030421223   -0.6739769046   0.8136348773
H      -1.8836302965   -1.1138605600   1.4270957306
C      0.2341045597   -1.0079193445   0.9832527953
H      0.5222298998   -1.7256030707   1.7488685510
H      2.8120712250   -1.8539604549   0.5163682935
H      3.2844666355   -0.4347015920   -0.4292211357
21
Dihedral -90.0 Energy -573.8805493665
O      2.6688905498   1.0457900480   1.9400774380
C      3.1273055976   -0.0930417492   1.7635689631
O      3.9094349441   -0.7732025470   2.4432408303
C      2.6481690851   -0.7796314977   0.3989158687
C      1.2245749572   -0.4039140923   0.1542033516
C      0.8848940545   0.5675703008   -0.7861053931
H      1.6717914358   1.0382109330   -1.3720071901
C      -0.4412032184   0.9355099535   -0.9836635906
H      -0.7256850958   1.6864693428   -1.7159598041
C      -1.4365155317   0.3362389803   -0.2187000177
O      -2.7445029031   0.7397230574   -0.3622132627
C      -3.4788342154   -0.0173027827   -1.3051144837
H      -3.5244780778   -1.0784336024   -1.0224681685
H      -4.4912940864   0.3927285442   -1.3174468376
H      -3.0452751044   0.0646503941   -2.3116215968
C      -1.1133086620   -0.6327946121   0.7277218243
H      -1.9169917492   -1.0821847225   1.3051641331
C      0.2149249117   -0.9893185298   0.9208685032
H      0.4747215959   -1.7350688095   1.6693198337
H      2.7906321134   -1.8588457172   0.4836393713
H      3.3047623412   -0.4171421057   -0.4044040142
21
Dihedral -75.0 Energy -573.8806993169
O      2.6398170727   1.0044378066   2.0027385994
C      3.0951929036   -0.1323832222   1.8066167847
O      3.8496956085   -0.8394371340   2.4900208414
C      2.6568220781   -0.7728162478   0.4062964925
C      1.2440860431   -0.3801669213   0.1279739911
C      0.9373718250   0.6209749026   -0.7917377797
H      1.7445162790   1.1074331698   -1.3361555301
C      -0.3793971072   1.0050068668   -1.0180650412
H      -0.6312227008   1.7856250967   -1.7297733549
C      -1.4043512394   0.3822753018   -0.3123253280
O      -2.6966933386   0.8133613310   -0.4981919927
C      -3.5225975366   -0.0802232481   -1.2213489740
H      -3.6026104943   -1.0568161675   -0.7240909495
H      -4.5130419032   0.3782303161   -1.2634671872
H      -3.1488145084   -0.2296910566   -2.2435029697
C      -1.1131194786   -0.6132358469   0.6185882019
H      -1.9302356480   -1.0746527165   1.1678551117
C      0.2075308994   -0.9794569303   0.8453075702
H      0.4374220994   -1.7472823767   1.5810831048
H      2.7904045800   -1.8550380376   0.4619923125
H      3.3411954675   -0.3901602677   -0.3638169513
21
Dihedral -60.0 Energy -573.8810967309
O      2.5901918929   0.9673533612   2.0669442331
C      3.0578584220   -0.1604748871   1.8489270906
O      3.7907236085   -0.8876869578   2.5348443058
C      2.6717694617   -0.7554850294   0.4134887740
C      1.2666581084   -0.3617675454   0.1001827412
C      0.9838838049   0.6689675208   -0.7944110980
H      1.8053824352   1.1804603067   -1.2925911073
C      -0.3259389682   1.0530770107   -1.0526290133
H      -0.5606651335   1.8575174454   -1.7436005840
C      -1.3743283981   0.3966357523   -0.4116562376
O      -2.6490839963   0.8467340742   -0.6434990374
C      -3.5668859543   -0.1164722251   -1.1264525968
H      -3.7527028912   -0.9148899836   -0.3955183382
H      -4.5021492099   0.4174421248   -1.3073368516
H      -3.2160203285   -0.5664270712   -2.0646409455
C      -1.1063968843   -0.6237870557   0.5000961444
H      -1.9290232488   -1.1100874413   1.0178521305
C      0.2094529317   -0.9881919349   0.7594675992
H      0.4176554944   -1.7774352548   1.4790867880
H      2.8107636116   -1.8382057497   0.4376137725
H      3.3798261958   -0.3433170103   -0.3191493093
21
Dihedral -45.0 Energy -573.8822625381
O      2.5206989596   0.9302296716   2.1295076812
C      3.0095463522   -0.1843142408   1.8907425860
O      3.7220758665   -0.9296243932   2.5786899710
C      2.6891927437   -0.7293156546   0.4197647560
C      1.2903524262   -0.3462228767   0.0686149388
C      1.0218168226   0.7129368061   -0.7974289096
H      1.8521574451   1.2566927816   -1.2441478218
C      -0.2822339647   1.0858988054   -1.0911482574
H      -0.5057177878   1.9143370477   -1.7573912263
C      -1.3452295255   0.3872374108   -0.5181298056
O      -2.6047827171   0.8468928903   -0.7832143206
C      -3.6058581467   -0.1259348504   -1.0127916491
H      -3.9390336668   -0.5991273459   -0.0790879748
H      -4.4499382350   0.4059321406   -1.4563738998
H      -3.2585322478   -0.9044859685   -1.7033674020
C      -1.0925354750   -0.6590569712   0.3692087876
H      -1.9180499443   -1.1936564147   0.8302953093
C      0.2198330513   -1.0120710068   0.6620707486
H      0.4147311115   -1.8249484630   1.3589645790
H      2.8463869799   -1.8098286170   0.4079624263
H      3.4171260633   -0.2775734353   -0.2687391811
21
Dihedral -30.0 Energy -573.8838891712
O      2.4458393932   0.9062346686   2.1780846955
C      2.9566307469   -0.1962163099   1.9297039667
O      3.6526933404   -0.9497930935   2.6254152362
C      2.6960695192   -0.7088601599   0.4353158102
C      1.3045233095   -0.3381548635   0.0450635897
C      1.0494452792   0.7379938466   -0.8050669774
H      1.8871480669   1.3038821100   -1.2088199181
C      -0.2475725103   1.0986956998   -1.1360252950
H      -0.4594869978   1.9402242569   -1.7892510933
C      -1.3210894453   0.3717147387   -0.6167592159
O      -2.5679614107   0.8222441062   -0.9324945100
C      -3.6197639171   -0.1208606453   -0.9177303620
H      -3.9183212752   -0.3763199701   0.1081036943
H      -4.4620800975   0.3543564854   -1.4236082170
H      -3.3425921891   -1.0405299615   -1.4483532012
C      -1.0833258121   -0.6918803613   0.2543358082
H      -1.9116032238   -1.2585681199   0.6689796816
C      0.2248355054   -1.0328973079   0.5835159085
H      0.4066786767   -1.8605972427   1.2667674402
H      2.8706002523   -1.7862063769   0.4028227948
H      3.4403491045   -0.2294547893   -0.2160002802
21
Dihedral -15.0 Energy -573.8851586607
O      2.3697587523   0.8898532590   2.2160550035
C      2.9066371664   -0.1992345625   1.9639013048
O      3.5925509396   -0.9547248120   2.6675843560
C      2.7008033709   -0.6885075233   0.4532341666
C      1.3155667622   -0.3340356839   0.0274590981
C      1.0663033113   0.7529348245   -0.8114808943
H      1.9062389616   1.3390384534   -1.1802345212
C      -0.2254374186   1.0964296191   -1.1759856954
H      -0.4324943567   1.9420908437   -1.8254987194
C      -1.3026768333   0.3445680158   -0.6980631914
O      -2.5390020538   0.7676559558   -1.0764348585
C      -3.6239881880   -0.1037931902   -0.8426584264
H      -3.8315181741   -0.2080343608   0.2308815939
H      -4.4874215548   0.3495336448   -1.3319015184
H      -3.4404335522   -1.0981860978   -1.2697921295
C      -1.0717238231   -0.7323331098   0.1583928727
H      -1.8967690370   -1.3231379366   0.5429611729
C      0.2332803289   -1.0563261065   0.5197232347
H      0.4089371399   -1.8929844411   1.1938915071
H      2.8951749731   -1.7619952623   0.4070000567
H      3.4562251102   -0.1848082584   -0.1660359517
21
Dihedral 0.0 Energy -573.8856064108
O      2.2945709516   0.8766952544   2.2503364558
C      2.8610322809   -0.1966267995   1.9951079515
O      3.5453112731   -0.9485255027   2.7042162916
C      2.7060616875   -0.6644275576   0.4716743595
C      1.3248438899   -0.3339788359   0.0141311631
C      1.0752210898   0.7611973547   -0.8142269643
H      1.9118377250   1.3705644048   -1.1516301302
C      -0.2128019955   1.0816147081   -1.2099018874
H      -0.4186315328   1.9277114204   -1.8593333742
C      -1.2875946320   0.3032060332   -0.7684880998
O      -2.5161095361   0.6852021918   -1.2082738792
C      -3.6256240621   -0.0734749211   -0.7803642479
H      -3.7301598931   -0.0519308616   0.3125232128
H      -4.5017946047   0.3892976319   -1.2367240913
H      -3.5507958494   -1.1174690692   -1.1123927592
C      -1.0563309160   -0.7847606473   0.0738965118
H      -1.8768031044   -1.3971999561   0.4327268332
C      0.2457702890   -1.0875684673   0.4641685365
H      0.4209091734   -1.9309287469   1.1302400333
H      2.9260200478   -1.7323673683   0.4129160630
H      3.4660640462   -0.1333901517   -0.1185234585
21
Dihedral 15.0 Energy -573.8851487515
O      2.2154908484   0.8613894717   2.2802564639
C      2.8182577434   -0.1912362392   2.0219940852
O      3.5038143303   -0.9372563437   2.7360844453
C      2.7130190032   -0.6375115033   0.4880526784
C      1.3350306990   -0.3351080123   0.0022786296
C      1.0751380541   0.7663299654   -0.8142256082
H      1.9035883631   1.4017372705   -1.1225584305
C      -0.2114977915   1.0582594128   -1.2368832490
H      -0.4231238354   1.9035081279   -1.8854155403
C      -1.2754726091   0.2487029685   -0.8281940153
O      -2.4997941368   0.5781620689   -1.3216347836
C      -3.6256404008   -0.0304385505   -0.7272595537
H      -3.6303181640   0.1080499788   0.3617398122
H      -4.4993109841   0.4586282651   -1.1608916934
H      -3.6655627355   -1.1047776518   -0.9517993884
C      -1.0341946526   -0.8483845752   -0.0004901186
H      -1.8489661141   -1.4827444497   0.3331937262
C      0.2660464199   -1.1246271518   0.4141405940
H      0.4482164868   -1.9732337637   1.0714296635
H      2.9623276228   -1.6983333692   0.4175959973
H      3.4729460733   -0.0770876197   -0.0744066082
21
Dihedral 30.0 Energy -573.8838729438
O      2.1401902761   0.8442838226   2.3092116352
C      2.7810201192   -0.1841832511   2.0456661921
O      3.4763195396   -0.9201221473   2.7607028518
C      2.7201019108   -0.6071627955   0.5025568634
C      1.3432271020   -0.3398693069   -0.0062032780
C      1.0661746917   0.7674093303   -0.8081253197
H      1.8793695477   1.4343602079   -1.0889848131
C      -0.2208417192   1.0260923878   -1.2538327918
H      -0.4452217362   1.8726985255   -1.8962337356
C      -1.2659458468   0.1792967789   -0.8780587129
O      -2.4895515501   0.4510609532   -1.4133436568
C      -3.6233462956   0.0270166939   -0.6847851884
H      -3.5421630173   0.2941571830   0.3764603163
H      -4.4791897635   0.5399097195   -1.1272029624
H      -3.7749669461   -1.0576629674   -0.7696586270
C      -1.0067337176   -0.9267224061   -0.0679876777
H      -1.8139720081   -1.5863002181   0.2358184914
C      0.2915714711   -1.1714769014   0.3687335875
H      0.4873306020   -2.0258460663   1.0142870554
H      3.0040302568   -1.6581968994   0.4195157046
H      3.4726060125   -0.0137431509   -0.0355332291
21
Dihedral 45.0 Energy -573.8822403279
O      2.0506837632   0.8086091071   2.3428212240
C      2.7404636367   -0.1847881145   2.0681720494
O      3.4556961447   -0.9058427354   2.7787487066
C      2.7261461469   -0.5727599988   0.5148573578
C      1.3499012028   -0.3476085178   -0.0157116672
C      1.0457098374   0.7662705848   -0.7973805836
H      1.8366390581   1.4710454396   -1.0475088849
C      -0.2431755099   0.9851914581   -1.2627698173
H      -0.4902090264   1.8374267755   -1.8893212072
C      -1.2594960363   0.0915750740   -0.9244210754
O      -2.4893481609   0.3104105552   -1.4790514378
C      -3.6127488152   0.1075929755   -0.6434596529
H      -3.4729779448   0.5764219666   0.3385573792
H      -4.4587549601   0.5728036266   -1.1533758777
H      -3.8302214224   -0.9598333586   -0.5021605279
C      -0.9723579541   -1.0229621537   -0.1362951542
H      -1.7618124196   -1.7221692061   0.1247751530
C      0.3246982100   -1.2297739036   0.3196115348
H      0.5425615849   -2.0906829342   0.9488035549
H      3.0530163073   -1.6095436461   0.4129982409
H      3.4646006564   0.0626190965   0.0061005914
21
Dihedral 60.0 Energy -573.8810715777
O      1.9558932291   0.7438621599   2.3849718736
C      2.6984859849   -0.2041999304   2.0884028156
O      3.4392404185   -0.9113806499   2.7866292100
C      2.7256115864   -0.5403186188   0.5232649099
C      1.3495049400   -0.3568502444   -0.0245619673
C      1.0100580599   0.7687620471   -0.7731960867
H      1.7726084772   1.5162767808   -0.9838660656
C      -0.2811251676   0.9455402499   -1.2543342347
H      -0.5551224161   1.8093935880   -1.8529493437
C      -1.2578395182   -0.0055922144   -0.9681279668
O      -2.5012957929   0.1663103591   -1.5207330100
C      -3.5820247853   0.2109750776   -0.6076838577
H      -3.4412197018   1.0034745332   0.1391065433
H      -4.4735368695   0.4252818870   -1.2007887633
H      -3.7259762726   -0.7464214916   -0.0889809752
C      -0.9373601027   -1.1294084781   -0.2076505223
H      -1.7021261895   -1.8739364641   -0.0024819955
C      0.3597273033   -1.2962931334   0.2628098867
H      0.6059768779   -2.1682052233   0.8655009616
H      3.0987003926   -1.5581819323   0.3929322843
H      3.4438433160   0.1429334526   0.0487246714
21
Dihedral 75.0 Energy -573.8806939003
O      1.8804701202   0.6805797776   2.4197898836
C      2.6692796830   -0.2216932643   2.1005271610
O      3.4367754879   -0.9150267197   2.7836638193
C      2.7231097535   -0.5080074602   0.5261483311
C      1.3446435161   -0.3664636693   -0.0283341237
C      0.9631359713   0.7682893990   -0.7419784283
H      1.6939022510   1.5551884963   -0.9187622236
C      -0.3320790959   0.9046865532   -1.2279541189
H      -0.6381526379   1.7774798749   -1.7971886379
C      -1.2627413232   -0.1016741297   -0.9875883710
O      -2.5198988582   0.0112856382   -1.5333138398
C      -3.5454880551   0.3091115679   -0.6042061379
H      -3.3813114075   1.2864348189   -0.1301985540
H      -4.4799549172   0.3356879676   -1.1690414940
H      -3.6238896773   -0.4579660884   0.1785484050
C      -0.9031150909   -1.2314971349   -0.2544954794
H      -1.6471878327   -2.0047222770   -0.0795390573
C      0.3954626815   -1.3584471681   0.2222379545
H      0.6757690262   -2.2355636768   0.8015856453
H      3.1405954671   -1.5044734232   0.3680684447
H      3.4146808531   0.2198014950   0.0790388412
21
Dihedral 90.0 Energy -573.880575302
O      1.8349478311   0.6291676124   2.4470225032
C      2.6614397041   -0.2293626526   2.1033864755
O      3.4600901911   -0.9059301581   2.7672242211
C      2.7224002604   -0.4741203636   0.5223371108
C      1.3373561293   -0.3771048075   -0.0252380422
C      0.9063038088   0.7617232656   -0.7042261704
H      1.6016280193   1.5848916521   -0.8556570754
C      -0.3962752513   0.8571100367   -1.1808284013
H      -0.7486887258   1.7342486948   -1.7171397860
C      -1.2761728989   -0.2007235857   -0.9766406745
O      -2.5450661893   -0.1459342442   -1.5066208764
C      -3.5099480037   0.4024510861   -0.6293613873
H      -3.2653194702   1.4398353652   -0.3613855405
H      -4.4638633854   0.3859931222   -1.1613257570
H      -3.6016675562   -0.1907671502   0.2912911964
C      -0.8699357012   -1.3321707061   -0.2738645338
H      -1.5895745732   -2.1316405082   -0.1181579785
C      0.4322107287   -1.4158035383   0.2011234594
H      0.7530078906   -2.2944967362   0.7567544924
H      3.1812008502   -1.4476743280   0.3383668867
H      3.3809218782   0.2933075186   0.0919442580
21
Dihedral 105.0 Energy -573.880672763
O      1.8292398340   0.5739442734   2.4772167806
C      2.6802642461   -0.2462268721   2.1010620529
O      3.5115424682   -0.9108344324   2.7364366168
C      2.7298349596   -0.4459894415   0.5133517404
C      1.3352420280   -0.3853677504   -0.0151221440
C      0.8536508140   0.7538496863   -0.6574708075
H      1.5165533118   1.6057246202   -0.7942147788
C      -0.4592209620   0.8176636976   -1.1119580402
H      -0.8422251504   1.6982152697   -1.6222995906
C      -1.2992137309   -0.2771867491   -0.9272314279
O      -2.5793982706   -0.2756563873   -1.4297430245
C      -3.5046023488   0.4880570686   -0.6795216848
H      -3.2050464964   1.5435347971   -0.6175235934
H      -4.4607109075   0.4203586498   -1.2032224200
H      -3.6205922115   0.0896847114   0.3377133975
C      -0.8381667551   -1.4145043842   -0.2686465486
H      -1.5225003794   -2.2465056347   -0.1318843271
C      0.4711173042   -1.4618009606   0.1914775278
H      0.8314310677   -2.3446993264   0.7157838596
H      3.2215071704   -1.3967462734   0.2976304827
H      3.3543029890   0.3564613718   0.0961724569
21
Dihedral 120.0 Energy -573.8809866187
O      1.8481819770   0.5078289984   2.5141769314
C      2.7107381770   -0.2792561485   2.0961680861
O      3.5673301626   -0.9459771685   2.6946505334
C      2.7388824314   -0.4220596617   0.5017973541
C      1.3337324477   -0.3881414799   0.0001587414
C      0.8036379460   0.7529873189   -0.5965551090
H      1.4346945533   1.6307159132   -0.7211066446
C      -0.5197729279   0.7906663364   -1.0243544449
H      -0.9251626920   1.6771601642   -1.5056835246
C      -1.3243723483   -0.3341995542   -0.8589034794
O      -2.6150495085   -0.3784992951   -1.3234142775
C      -3.5052211349   0.5623972163   -0.7524280195
H      -3.2101438211   1.5974116444   -0.9716168428
H      -4.4814391878   0.3727982033   -1.2037043860
H      -3.5760812222   0.4348926835   0.3361419062
C      -0.8107591679   -1.4783690499   -0.2499914413
H      -1.4623718682   -2.3390434254   -0.1317238527
C      0.5068326940   -1.4972066480   0.1855663734
H      0.9037604485   -2.3859775923   0.6725130191
H      3.2566940092   -1.3482770078   0.2446265207
H      3.3298863743   0.4141577240   0.1026867569
21
Dihedral 135.0 Energy -573.8819684264
O      1.8821008214   0.4229311345   2.5567755181
C      2.7518884156   -0.3264942634   2.0876839161
O      3.6369592178   -0.9964676878   2.6392683047
C      2.7459861326   -0.4047803006   0.4884726137
C      1.3291381099   -0.3872727396   0.0201978612
C      0.7535399238   0.7608935508   -0.5153597797
H      1.3575093863   1.6607594880   -0.6151858661
C      -0.5796663526   0.7806234619   -0.9146731871
H      -1.0124130059   1.6842790947   -1.3352598732
C      -1.3501462449   -0.3728833755   -0.7837915441
O      -2.6492652939   -0.4528786209   -1.2043003692
C      -3.5025236016   0.6198688321   -0.8535532875
H      -3.2949196295   1.5215766998   -1.4453119414
H      -4.5176122109   0.2832850207   -1.0735341423
H      -3.4214930047   0.8652922381   0.2128409856
C      -0.7916633645   -1.5241168912   -0.2254251527
H      -1.4206180371   -2.4039381902   -0.1262312520
C      0.5342730015   -1.5240323910   0.1793908818
H      0.9645017158   -2.4201462476   0.6226466242
H      3.2809063327   -1.3062403499   0.1827095092
H      3.3065437645   0.4617691510   0.1106310963
21
Dihedral 150.0 Energy -573.8836506632
O      1.9323758474   0.3557444455   2.5858785491
C      2.7998989298   -0.3628878529   2.0670179890
O      3.7104376941   -1.0374110104   2.5694769209
C      2.7490341800   -0.3868329681   0.4667957351
C      1.3192485908   -0.3826457728   0.0396909893
C      0.7049193432   0.7693369226   -0.4384627859
H      1.2861763837   1.6860239925   -0.5216188614
C      -0.6397044885   0.7753174438   -0.8015304765
H      -1.1012730520   1.6894477730   -1.1633108199
C      -1.3822961207   -0.3989866439   -0.6920015400
O      -2.6901085813   -0.5046352321   -1.0625181808
C      -3.4915413688   0.6540059224   -0.9539714061
H      -3.2723488293   1.3738428049   -1.7543349419
H      -4.5255764489   0.3190791152   -1.0533557992
H      -3.3561870836   1.1473710450   0.0169088650
C      -0.7845279382   -1.5557807850   -0.1839528352
H      -1.3912130405   -2.4523345921   -0.0970506743
C      0.5509428395   -1.5404721023   0.1828379829
H      1.0118215259   -2.4412937003   0.5840147611
H      3.2924346868   -1.2662153077   0.1151759161
H      3.2814625398   0.5033774086   0.1033240135
21
Dihedral 165.0 Energy -573.8851255206
O      2.4846592829   1.4200031348   1.5249857704
C      3.0678970995   0.3316625925   1.6409156278
O      3.9116557930   -0.0602830545   2.4599938023
C      2.6841628783   -0.7325939617   0.5078717423
C      1.2247208283   -0.6106849282   0.2220972017
C      0.7555536321   0.0406048257   -0.9117108241
H      1.4704845466   0.4535085822   -1.6215943665
C      -0.6095380948   0.1820902906   -1.1552577525
H      -0.9450924207   0.7019945613   -2.0469576897
C      -1.5232359293   -0.3437211391   -0.2436093310
O      -2.8742428978   -0.2874987237   -0.3947376570
C      -3.3840340167   0.6087247308   -1.3583858511
H      -3.1418286180   0.2819145956   -2.3786807326
H      -4.4675235317   0.6078063028   -1.2299196339
H      -2.9974126741   1.6249050700   -1.2069971498
C      -1.0632249382   -0.9785879200   0.9153460331
H      -1.7979005378   -1.3693517393   1.6131726294
C      0.2962265494   -1.1011947483   1.1442584128
H      0.6505115096   -1.5888540289   2.0506755918
H      2.9650322047   -1.7282207432   0.8572697813
H      3.2901142929   -0.5062193551   -0.3807485362
